Generated by pymatgen.io.lammps.data.LammpsData

1080  atoms

   3  atom types

0.000000 23.985000  xlo xhi
0.000000 23.985000  ylo yhi
0.000000 23.985000  zlo zhi
1.0e-08 1.0e-08 1.0e-08 xy xz yz 

Masses

1  137.3270
2   47.8670
3   15.9994

Atoms

1     1  0.000000  0.000000  0.000000
2     1  0.000000  0.000000  3.997500
3     1  0.000000  0.000000  7.995000
4     1  0.000000  0.000000 11.992500
5     1  0.000000  0.000000 15.990000
6     1  0.000000  0.000000 19.987500
7     1  0.000000  3.997500  0.000000
8     1  0.000000  3.997500  3.997500
9     1  0.000000  3.997500  7.995000
10    1  0.000000  3.997500 11.992500
11    1  0.000000  3.997500 15.990000
12    1  0.000000  3.997500 19.987500
13    1  0.000000  7.995000  0.000000
14    1  0.000000  7.995000  3.997500
15    1  0.000000  7.995000  7.995000
16    1  0.000000  7.995000 11.992500
17    1  0.000000  7.995000 15.990000
18    1  0.000000  7.995000 19.987500
19    1  0.000000 11.992500 23.985000
20    1  0.000000 11.992500  3.997500
21    1  0.000000 11.992500  7.995000
22    1  0.000000 11.992500 11.992500
23    1  0.000000 11.992500 15.990000
24    1  0.000000 11.992500 19.987500
25    1  0.000000 15.990000  0.000000
26    1  0.000000 15.990000  3.997500
27    1  0.000000 15.990000  7.995000
28    1  0.000000 15.990000 11.992500
29    1  0.000000 15.990000 15.990000
30    1  0.000000 15.990000 19.987500
31    1  0.000000 19.987500  0.000000
32    1  0.000000 19.987500  3.997500
33    1  0.000000 19.987500  7.995000
34    1  0.000000 19.987500 11.992500
35    1  0.000000 19.987500 15.990000
36    1  0.000000 19.987500 19.987500
37    1  3.997500  0.000000  0.000000
38    1  3.997500  0.000000  3.997500
39    1  3.997500  0.000000  7.995000
40    1  3.997500  0.000000 11.992500
41    1  3.997500  0.000000 15.990000
42    1  3.997500  0.000000 19.987500
43    1  3.997500  3.997500  0.000000
44    1  3.997500  3.997500  3.997500
45    1  3.997500  3.997500  7.995000
46    1  3.997500  3.997500 11.992500
47    1  3.997500  3.997500 15.990000
48    1  3.997500  3.997500 19.987500
49    1  3.997500  7.995000  0.000000
50    1  3.997500  7.995000  3.997500
51    1  3.997500  7.995000  7.995000
52    1  3.997500  7.995000 11.992500
53    1  3.997500  7.995000 15.990000
54    1  3.997500  7.995000 19.987500
55    1  3.997500 11.992500  0.000000
56    1  3.997500 11.992500  3.997500
57    1  3.997500 11.992500  7.995000
58    1  3.997500 11.992500 11.992500
59    1  3.997500 11.992500 15.990000
60    1  3.997500 11.992500 19.987500
61    1  3.997500 15.990000  0.000000
62    1  3.997500 15.990000  3.997500
63    1  3.997500 15.990000  7.995000
64    1  3.997500 15.990000 11.992500
65    1  3.997500 15.990000 15.990000
66    1  3.997500 15.990000 19.987500
67    1  3.997500 19.987500  0.000000
68    1  3.997500 19.987500  3.997500
69    1  3.997500 19.987500  7.995000
70    1  3.997500 19.987500 11.992500
71    1  3.997500 19.987500 15.990000
72    1  3.997500 19.987500 19.987500
73    1  7.995000  0.000000  0.000000
74    1  7.995000  0.000000  3.997500
75    1  7.995000  0.000000  7.995000
76    1  7.995000  0.000000 11.992500
77    1  7.995000  0.000000 15.990000
78    1  7.995000  0.000000 19.987500
79    1  7.995000  3.997500  0.000000
80    1  7.995000  3.997500  3.997500
81    1  7.995000  3.997500  7.995000
82    1  7.995000  3.997500 11.992500
83    1  7.995000  3.997500 15.990000
84    1  7.995000  3.997500 19.987500
85    1  7.995000  7.995000  0.000000
86    1  7.995000  7.995000  3.997500
87    1  7.995000  7.995000  7.995000
88    1  7.995000  7.995000 11.992500
89    1  7.995000  7.995000 15.990000
90    1  7.995000  7.995000 19.987500
91    1  7.995000 11.992500 -0.000000
92    1  7.995000 11.992500  3.997500
93    1  7.995000 11.992500  7.995000
94    1  7.995000 11.992500 11.992500
95    1  7.995000 11.992500 15.990000
96    1  7.995000 11.992500 19.987500
97    1  7.995000 15.990000  0.000000
98    1  7.995000 15.990000  3.997500
99    1  7.995000 15.990000  7.995000
100   1  7.995000 15.990000 11.992500
101   1  7.995000 15.990000 15.990000
102   1  7.995000 15.990000 19.987500
103   1  7.995000 19.987500  0.000000
104   1  7.995000 19.987500  3.997500
105   1  7.995000 19.987500  7.995000
106   1  7.995000 19.987500 11.992500
107   1  7.995000 19.987500 15.990000
108   1  7.995000 19.987500 19.987500
109   1 11.992500  0.000000 -0.000000
110   1 11.992500  0.000000  3.997500
111   1 11.992500  0.000000  7.995000
112   1 11.992500  0.000000 11.992500
113   1 11.992500  0.000000 15.990000
114   1 11.992500  0.000000 19.987500
115   1 11.992500  3.997500  0.000000
116   1 11.992500  3.997500  3.997500
117   1 11.992500  3.997500  7.995000
118   1 11.992500  3.997500 11.992500
119   1 11.992500  3.997500 15.990000
120   1 11.992500  3.997500 19.987500
121   1 11.992500  7.995000  0.000000
122   1 11.992500  7.995000  3.997500
123   1 11.992500  7.995000  7.995000
124   1 11.992500  7.995000 11.992500
125   1 11.992500  7.995000 15.990000
126   1 11.992500  7.995000 19.987500
127   1 11.992500 11.992500 -0.000000
128   1 11.992500 11.992500  3.997500
129   1 11.992500 11.992500  7.995000
130   1 11.992500 11.992500 11.992500
131   1 11.992500 11.992500 15.990000
132   1 11.992500 11.992500 19.987500
133   1 11.992500 15.990000  0.000000
134   1 11.992500 15.990000  3.997500
135   1 11.992500 15.990000  7.995000
136   1 11.992500 15.990000 11.992500
137   1 11.992500 15.990000 15.990000
138   1 11.992500 15.990000 19.987500
139   1 11.992500 19.987500  0.000000
140   1 11.992500 19.987500  3.997500
141   1 11.992500 19.987500  7.995000
142   1 11.992500 19.987500 11.992500
143   1 11.992500 19.987500 15.990000
144   1 11.992500 19.987500 19.987500
145   1 15.990000  0.000000  0.000000
146   1 15.990000  0.000000  3.997500
147   1 15.990000  0.000000  7.995000
148   1 15.990000  0.000000 11.992500
149   1 15.990000  0.000000 15.990000
150   1 15.990000  0.000000 19.987500
151   1 15.990000  3.997500  0.000000
152   1 15.990000  3.997500  3.997500
153   1 15.990000  3.997500  7.995000
154   1 15.990000  3.997500 11.992500
155   1 15.990000  3.997500 15.990000
156   1 15.990000  3.997500 19.987500
157   1 15.990000  7.995000  0.000000
158   1 15.990000  7.995000  3.997500
159   1 15.990000  7.995000  7.995000
160   1 15.990000  7.995000 11.992500
161   1 15.990000  7.995000 15.990000
162   1 15.990000  7.995000 19.987500
163   1 15.990000 11.992500  0.000000
164   1 15.990000 11.992500  3.997500
165   1 15.990000 11.992500  7.995000
166   1 15.990000 11.992500 11.992500
167   1 15.990000 11.992500 15.990000
168   1 15.990000 11.992500 19.987500
169   1 15.990000 15.990000  0.000000
170   1 15.990000 15.990000  3.997500
171   1 15.990000 15.990000  7.995000
172   1 15.990000 15.990000 11.992500
173   1 15.990000 15.990000 15.990000
174   1 15.990000 15.990000 19.987500
175   1 15.990000 19.987500  0.000000
176   1 15.990000 19.987500  3.997500
177   1 15.990000 19.987500  7.995000
178   1 15.990000 19.987500 11.992500
179   1 15.990000 19.987500 15.990000
180   1 15.990000 19.987500 19.987500
181   1 19.987500  0.000000  0.000000
182   1 19.987500  0.000000  3.997500
183   1 19.987500  0.000000  7.995000
184   1 19.987500  0.000000 11.992500
185   1 19.987500  0.000000 15.990000
186   1 19.987500  0.000000 19.987500
187   1 19.987500  3.997500  0.000000
188   1 19.987500  3.997500  3.997500
189   1 19.987500  3.997500  7.995000
190   1 19.987500  3.997500 11.992500
191   1 19.987500  3.997500 15.990000
192   1 19.987500  3.997500 19.987500
193   1 19.987500  7.995000  0.000000
194   1 19.987500  7.995000  3.997500
195   1 19.987500  7.995000  7.995000
196   1 19.987500  7.995000 11.992500
197   1 19.987500  7.995000 15.990000
198   1 19.987500  7.995000 19.987500
199   1 19.987500 11.992500  0.000000
200   1 19.987500 11.992500  3.997500
201   1 19.987500 11.992500  7.995000
202   1 19.987500 11.992500 11.992500
203   1 19.987500 11.992500 15.990000
204   1 19.987500 11.992500 19.987500
205   1 19.987500 15.990000  0.000000
206   1 19.987500 15.990000  3.997500
207   1 19.987500 15.990000  7.995000
208   1 19.987500 15.990000 11.992500
209   1 19.987500 15.990000 15.990000
210   1 19.987500 15.990000 19.987500
211   1 19.987500 19.987500  0.000000
212   1 19.987500 19.987500  3.997500
213   1 19.987500 19.987500  7.995000
214   1 19.987500 19.987500 11.992500
215   1 19.987500 19.987500 15.990000
216   1 19.987500 19.987500 19.987500
217   2  1.998750  1.998750  1.998750
218   2  1.998750  1.998750  5.996250
219   2  1.998750  1.998750  9.993750
220   2  1.998750  1.998750 13.991250
221   2  1.998750  1.998750 17.988750
222   2  1.998750  1.998750 21.986250
223   2  1.998750  5.996250  1.998750
224   2  1.998750  5.996250  5.996250
225   2  1.998750  5.996250  9.993750
226   2  1.998750  5.996250 13.991250
227   2  1.998750  5.996250 17.988750
228   2  1.998750  5.996250 21.986250
229   2  1.998750  9.993750  1.998750
230   2  1.998750  9.993750  5.996250
231   2  1.998750  9.993750  9.993750
232   2  1.998750  9.993750 13.991250
233   2  1.998750  9.993750 17.988750
234   2  1.998750  9.993750 21.986250
235   2  1.998750 13.991250  1.998750
236   2  1.998750 13.991250  5.996250
237   2  1.998750 13.991250  9.993750
238   2  1.998750 13.991250 13.991250
239   2  1.998750 13.991250 17.988750
240   2  1.998750 13.991250 21.986250
241   2  1.998750 17.988750  1.998750
242   2  1.998750 17.988750  5.996250
243   2  1.998750 17.988750  9.993750
244   2  1.998750 17.988750 13.991250
245   2  1.998750 17.988750 17.988750
246   2  1.998750 17.988750 21.986250
247   2  1.998750 21.986250  1.998750
248   2  1.998750 21.986250  5.996250
249   2  1.998750 21.986250  9.993750
250   2  1.998750 21.986250 13.991250
251   2  1.998750 21.986250 17.988750
252   2  1.998750 21.986250 21.986250
253   2  5.996250  1.998750  1.998750
254   2  5.996250  1.998750  5.996250
255   2  5.996250  1.998750  9.993750
256   2  5.996250  1.998750 13.991250
257   2  5.996250  1.998750 17.988750
258   2  5.996250  1.998750 21.986250
259   2  5.996250  5.996250  1.998750
260   2  5.996250  5.996250  5.996250
261   2  5.996250  5.996250  9.993750
262   2  5.996250  5.996250 13.991250
263   2  5.996250  5.996250 17.988750
264   2  5.996250  5.996250 21.986250
265   2  5.996250  9.993750  1.998750
266   2  5.996250  9.993750  5.996250
267   2  5.996250  9.993750  9.993750
268   2  5.996250  9.993750 13.991250
269   2  5.996250  9.993750 17.988750
270   2  5.996250  9.993750 21.986250
271   2  5.996250 13.991250  1.998750
272   2  5.996250 13.991250  5.996250
273   2  5.996250 13.991250  9.993750
274   2  5.996250 13.991250 13.991250
275   2  5.996250 13.991250 17.988750
276   2  5.996250 13.991250 21.986250
277   2  5.996250 17.988750  1.998750
278   2  5.996250 17.988750  5.996250
279   2  5.996250 17.988750  9.993750
280   2  5.996250 17.988750 13.991250
281   2  5.996250 17.988750 17.988750
282   2  5.996250 17.988750 21.986250
283   2  5.996250 21.986250  1.998750
284   2  5.996250 21.986250  5.996250
285   2  5.996250 21.986250  9.993750
286   2  5.996250 21.986250 13.991250
287   2  5.996250 21.986250 17.988750
288   2  5.996250 21.986250 21.986250
289   2  9.993750  1.998750  1.998750
290   2  9.993750  1.998750  5.996250
291   2  9.993750  1.998750  9.993750
292   2  9.993750  1.998750 13.991250
293   2  9.993750  1.998750 17.988750
294   2  9.993750  1.998750 21.986250
295   2  9.993750  5.996250  1.998750
296   2  9.993750  5.996250  5.996250
297   2  9.993750  5.996250  9.993750
298   2  9.993750  5.996250 13.991250
299   2  9.993750  5.996250 17.988750
300   2  9.993750  5.996250 21.986250
301   2  9.993750  9.993750  1.998750
302   2  9.993750  9.993750  5.996250
303   2  9.993750  9.993750  9.993750
304   2  9.993750  9.993750 13.991250
305   2  9.993750  9.993750 17.988750
306   2  9.993750  9.993750 21.986250
307   2  9.993750 13.991250  1.998750
308   2  9.993750 13.991250  5.996250
309   2  9.993750 13.991250  9.993750
310   2  9.993750 13.991250 13.991250
311   2  9.993750 13.991250 17.988750
312   2  9.993750 13.991250 21.986250
313   2  9.993750 17.988750  1.998750
314   2  9.993750 17.988750  5.996250
315   2  9.993750 17.988750  9.993750
316   2  9.993750 17.988750 13.991250
317   2  9.993750 17.988750 17.988750
318   2  9.993750 17.988750 21.986250
319   2  9.993750 21.986250  1.998750
320   2  9.993750 21.986250  5.996250
321   2  9.993750 21.986250  9.993750
322   2  9.993750 21.986250 13.991250
323   2  9.993750 21.986250 17.988750
324   2  9.993750 21.986250 21.986250
325   2 13.991250  1.998750  1.998750
326   2 13.991250  1.998750  5.996250
327   2 13.991250  1.998750  9.993750
328   2 13.991250  1.998750 13.991250
329   2 13.991250  1.998750 17.988750
330   2 13.991250  1.998750 21.986250
331   2 13.991250  5.996250  1.998750
332   2 13.991250  5.996250  5.996250
333   2 13.991250  5.996250  9.993750
334   2 13.991250  5.996250 13.991250
335   2 13.991250  5.996250 17.988750
336   2 13.991250  5.996250 21.986250
337   2 13.991250  9.993750  1.998750
338   2 13.991250  9.993750  5.996250
339   2 13.991250  9.993750  9.993750
340   2 13.991250  9.993750 13.991250
341   2 13.991250  9.993750 17.988750
342   2 13.991250  9.993750 21.986250
343   2 13.991250 13.991250  1.998750
344   2 13.991250 13.991250  5.996250
345   2 13.991250 13.991250  9.993750
346   2 13.991250 13.991250 13.991250
347   2 13.991250 13.991250 17.988750
348   2 13.991250 13.991250 21.986250
349   2 13.991250 17.988750  1.998750
350   2 13.991250 17.988750  5.996250
351   2 13.991250 17.988750  9.993750
352   2 13.991250 17.988750 13.991250
353   2 13.991250 17.988750 17.988750
354   2 13.991250 17.988750 21.986250
355   2 13.991250 21.986250  1.998750
356   2 13.991250 21.986250  5.996250
357   2 13.991250 21.986250  9.993750
358   2 13.991250 21.986250 13.991250
359   2 13.991250 21.986250 17.988750
360   2 13.991250 21.986250 21.986250
361   2 17.988750  1.998750  1.998750
362   2 17.988750  1.998750  5.996250
363   2 17.988750  1.998750  9.993750
364   2 17.988750  1.998750 13.991250
365   2 17.988750  1.998750 17.988750
366   2 17.988750  1.998750 21.986250
367   2 17.988750  5.996250  1.998750
368   2 17.988750  5.996250  5.996250
369   2 17.988750  5.996250  9.993750
370   2 17.988750  5.996250 13.991250
371   2 17.988750  5.996250 17.988750
372   2 17.988750  5.996250 21.986250
373   2 17.988750  9.993750  1.998750
374   2 17.988750  9.993750  5.996250
375   2 17.988750  9.993750  9.993750
376   2 17.988750  9.993750 13.991250
377   2 17.988750  9.993750 17.988750
378   2 17.988750  9.993750 21.986250
379   2 17.988750 13.991250  1.998750
380   2 17.988750 13.991250  5.996250
381   2 17.988750 13.991250  9.993750
382   2 17.988750 13.991250 13.991250
383   2 17.988750 13.991250 17.988750
384   2 17.988750 13.991250 21.986250
385   2 17.988750 17.988750  1.998750
386   2 17.988750 17.988750  5.996250
387   2 17.988750 17.988750  9.993750
388   2 17.988750 17.988750 13.991250
389   2 17.988750 17.988750 17.988750
390   2 17.988750 17.988750 21.986250
391   2 17.988750 21.986250  1.998750
392   2 17.988750 21.986250  5.996250
393   2 17.988750 21.986250  9.993750
394   2 17.988750 21.986250 13.991250
395   2 17.988750 21.986250 17.988750
396   2 17.988750 21.986250 21.986250
397   2 21.986250  1.998750  1.998750
398   2 21.986250  1.998750  5.996250
399   2 21.986250  1.998750  9.993750
400   2 21.986250  1.998750 13.991250
401   2 21.986250  1.998750 17.988750
402   2 21.986250  1.998750 21.986250
403   2 21.986250  5.996250  1.998750
404   2 21.986250  5.996250  5.996250
405   2 21.986250  5.996250  9.993750
406   2 21.986250  5.996250 13.991250
407   2 21.986250  5.996250 17.988750
408   2 21.986250  5.996250 21.986250
409   2 21.986250  9.993750  1.998750
410   2 21.986250  9.993750  5.996250
411   2 21.986250  9.993750  9.993750
412   2 21.986250  9.993750 13.991250
413   2 21.986250  9.993750 17.988750
414   2 21.986250  9.993750 21.986250
415   2 21.986250 13.991250  1.998750
416   2 21.986250 13.991250  5.996250
417   2 21.986250 13.991250  9.993750
418   2 21.986250 13.991250 13.991250
419   2 21.986250 13.991250 17.988750
420   2 21.986250 13.991250 21.986250
421   2 21.986250 17.988750  1.998750
422   2 21.986250 17.988750  5.996250
423   2 21.986250 17.988750  9.993750
424   2 21.986250 17.988750 13.991250
425   2 21.986250 17.988750 17.988750
426   2 21.986250 17.988750 21.986250
427   2 21.986250 21.986250  1.998750
428   2 21.986250 21.986250  5.996250
429   2 21.986250 21.986250  9.993750
430   2 21.986250 21.986250 13.991250
431   2 21.986250 21.986250 17.988750
432   2 21.986250 21.986250 21.986250
433   3  0.000000  1.998750  1.998750
434   3  0.000000  1.998750  5.996250
435   3  0.000000  1.998750  9.993750
436   3  0.000000  1.998750 13.991250
437   3  0.000000  1.998750 17.988750
438   3  0.000000  1.998750 21.986250
439   3  0.000000  5.996250  1.998750
440   3  0.000000  5.996250  5.996250
441   3  0.000000  5.996250  9.993750
442   3  0.000000  5.996250 13.991250
443   3  0.000000  5.996250 17.988750
444   3  0.000000  5.996250 21.986250
445   3  0.000000  9.993750  1.998750
446   3  0.000000  9.993750  5.996250
447   3  0.000000  9.993750  9.993750
448   3  0.000000  9.993750 13.991250
449   3  0.000000  9.993750 17.988750
450   3  0.000000  9.993750 21.986250
451   3  0.000000 13.991250  1.998750
452   3  0.000000 13.991250  5.996250
453   3  0.000000 13.991250  9.993750
454   3  0.000000 13.991250 13.991250
455   3  0.000000 13.991250 17.988750
456   3  0.000000 13.991250 21.986250
457   3 23.985000 17.988750  1.998750
458   3 23.985000 17.988750  5.996250
459   3 23.985000 17.988750  9.993750
460   3 23.985000 17.988750 13.991250
461   3 23.985000 17.988750 17.988750
462   3 23.985000 17.988750 21.986250
463   3  0.000000 21.986250  1.998750
464   3  0.000000 21.986250  5.996250
465   3  0.000000 21.986250  9.993750
466   3  0.000000 21.986250 13.991250
467   3  0.000000 21.986250 17.988750
468   3  0.000000 21.986250 21.986250
469   3  3.997500  1.998750  1.998750
470   3  3.997500  1.998750  5.996250
471   3  3.997500  1.998750  9.993750
472   3  3.997500  1.998750 13.991250
473   3  3.997500  1.998750 17.988750
474   3  3.997500  1.998750 21.986250
475   3  3.997500  5.996250  1.998750
476   3  3.997500  5.996250  5.996250
477   3  3.997500  5.996250  9.993750
478   3  3.997500  5.996250 13.991250
479   3  3.997500  5.996250 17.988750
480   3  3.997500  5.996250 21.986250
481   3  3.997500  9.993750  1.998750
482   3  3.997500  9.993750  5.996250
483   3  3.997500  9.993750  9.993750
484   3  3.997500  9.993750 13.991250
485   3  3.997500  9.993750 17.988750
486   3  3.997500  9.993750 21.986250
487   3  3.997500 13.991250  1.998750
488   3  3.997500 13.991250  5.996250
489   3  3.997500 13.991250  9.993750
490   3  3.997500 13.991250 13.991250
491   3  3.997500 13.991250 17.988750
492   3  3.997500 13.991250 21.986250
493   3  3.997500 17.988750  1.998750
494   3  3.997500 17.988750  5.996250
495   3  3.997500 17.988750  9.993750
496   3  3.997500 17.988750 13.991250
497   3  3.997500 17.988750 17.988750
498   3  3.997500 17.988750 21.986250
499   3  3.997500 21.986250  1.998750
500   3  3.997500 21.986250  5.996250
501   3  3.997500 21.986250  9.993750
502   3  3.997500 21.986250 13.991250
503   3  3.997500 21.986250 17.988750
504   3  3.997500 21.986250 21.986250
505   3  7.995000  1.998750  1.998750
506   3  7.995000  1.998750  5.996250
507   3  7.995000  1.998750  9.993750
508   3  7.995000  1.998750 13.991250
509   3  7.995000  1.998750 17.988750
510   3  7.995000  1.998750 21.986250
511   3  7.995000  5.996250  1.998750
512   3  7.995000  5.996250  5.996250
513   3  7.995000  5.996250  9.993750
514   3  7.995000  5.996250 13.991250
515   3  7.995000  5.996250 17.988750
516   3  7.995000  5.996250 21.986250
517   3  7.995000  9.993750  1.998750
518   3  7.995000  9.993750  5.996250
519   3  7.995000  9.993750  9.993750
520   3  7.995000  9.993750 13.991250
521   3  7.995000  9.993750 17.988750
522   3  7.995000  9.993750 21.986250
523   3  7.995000 13.991250  1.998750
524   3  7.995000 13.991250  5.996250
525   3  7.995000 13.991250  9.993750
526   3  7.995000 13.991250 13.991250
527   3  7.995000 13.991250 17.988750
528   3  7.995000 13.991250 21.986250
529   3  7.995000 17.988750  1.998750
530   3  7.995000 17.988750  5.996250
531   3  7.995000 17.988750  9.993750
532   3  7.995000 17.988750 13.991250
533   3  7.995000 17.988750 17.988750
534   3  7.995000 17.988750 21.986250
535   3  7.995000 21.986250  1.998750
536   3  7.995000 21.986250  5.996250
537   3  7.995000 21.986250  9.993750
538   3  7.995000 21.986250 13.991250
539   3  7.995000 21.986250 17.988750
540   3  7.995000 21.986250 21.986250
541   3 11.992500  1.998750  1.998750
542   3 11.992500  1.998750  5.996250
543   3 11.992500  1.998750  9.993750
544   3 11.992500  1.998750 13.991250
545   3 11.992500  1.998750 17.988750
546   3 11.992500  1.998750 21.986250
547   3 11.992500  5.996250  1.998750
548   3 11.992500  5.996250  5.996250
549   3 11.992500  5.996250  9.993750
550   3 11.992500  5.996250 13.991250
551   3 11.992500  5.996250 17.988750
552   3 11.992500  5.996250 21.986250
553   3 11.992500  9.993750  1.998750
554   3 11.992500  9.993750  5.996250
555   3 11.992500  9.993750  9.993750
556   3 11.992500  9.993750 13.991250
557   3 11.992500  9.993750 17.988750
558   3 11.992500  9.993750 21.986250
559   3 11.992500 13.991250  1.998750
560   3 11.992500 13.991250  5.996250
561   3 11.992500 13.991250  9.993750
562   3 11.992500 13.991250 13.991250
563   3 11.992500 13.991250 17.988750
564   3 11.992500 13.991250 21.986250
565   3 11.992500 17.988750  1.998750
566   3 11.992500 17.988750  5.996250
567   3 11.992500 17.988750  9.993750
568   3 11.992500 17.988750 13.991250
569   3 11.992500 17.988750 17.988750
570   3 11.992500 17.988750 21.986250
571   3 11.992500 21.986250  1.998750
572   3 11.992500 21.986250  5.996250
573   3 11.992500 21.986250  9.993750
574   3 11.992500 21.986250 13.991250
575   3 11.992500 21.986250 17.988750
576   3 11.992500 21.986250 21.986250
577   3 15.990000  1.998750  1.998750
578   3 15.990000  1.998750  5.996250
579   3 15.990000  1.998750  9.993750
580   3 15.990000  1.998750 13.991250
581   3 15.990000  1.998750 17.988750
582   3 15.990000  1.998750 21.986250
583   3 15.990000  5.996250  1.998750
584   3 15.990000  5.996250  5.996250
585   3 15.990000  5.996250  9.993750
586   3 15.990000  5.996250 13.991250
587   3 15.990000  5.996250 17.988750
588   3 15.990000  5.996250 21.986250
589   3 15.990000  9.993750  1.998750
590   3 15.990000  9.993750  5.996250
591   3 15.990000  9.993750  9.993750
592   3 15.990000  9.993750 13.991250
593   3 15.990000  9.993750 17.988750
594   3 15.990000  9.993750 21.986250
595   3 15.990000 13.991250  1.998750
596   3 15.990000 13.991250  5.996250
597   3 15.990000 13.991250  9.993750
598   3 15.990000 13.991250 13.991250
599   3 15.990000 13.991250 17.988750
600   3 15.990000 13.991250 21.986250
601   3 15.990000 17.988750  1.998750
602   3 15.990000 17.988750  5.996250
603   3 15.990000 17.988750  9.993750
604   3 15.990000 17.988750 13.991250
605   3 15.990000 17.988750 17.988750
606   3 15.990000 17.988750 21.986250
607   3 15.990000 21.986250  1.998750
608   3 15.990000 21.986250  5.996250
609   3 15.990000 21.986250  9.993750
610   3 15.990000 21.986250 13.991250
611   3 15.990000 21.986250 17.988750
612   3 15.990000 21.986250 21.986250
613   3 19.987500  1.998750  1.998750
614   3 19.987500  1.998750  5.996250
615   3 19.987500  1.998750  9.993750
616   3 19.987500  1.998750 13.991250
617   3 19.987500  1.998750 17.988750
618   3 19.987500  1.998750 21.986250
619   3 19.987500  5.996250  1.998750
620   3 19.987500  5.996250  5.996250
621   3 19.987500  5.996250  9.993750
622   3 19.987500  5.996250 13.991250
623   3 19.987500  5.996250 17.988750
624   3 19.987500  5.996250 21.986250
625   3 19.987500  9.993750  1.998750
626   3 19.987500  9.993750  5.996250
627   3 19.987500  9.993750  9.993750
628   3 19.987500  9.993750 13.991250
629   3 19.987500  9.993750 17.988750
630   3 19.987500  9.993750 21.986250
631   3 19.987500 13.991250  1.998750
632   3 19.987500 13.991250  5.996250
633   3 19.987500 13.991250  9.993750
634   3 19.987500 13.991250 13.991250
635   3 19.987500 13.991250 17.988750
636   3 19.987500 13.991250 21.986250
637   3 19.987500 17.988750  1.998750
638   3 19.987500 17.988750  5.996250
639   3 19.987500 17.988750  9.993750
640   3 19.987500 17.988750 13.991250
641   3 19.987500 17.988750 17.988750
642   3 19.987500 17.988750 21.986250
643   3 19.987500 21.986250  1.998750
644   3 19.987500 21.986250  5.996250
645   3 19.987500 21.986250  9.993750
646   3 19.987500 21.986250 13.991250
647   3 19.987500 21.986250 17.988750
648   3 19.987500 21.986250 21.986250
649   3  1.998750  0.000000  1.998750
650   3  1.998750  0.000000  5.996250
651   3  1.998750  0.000000  9.993750
652   3  1.998750  0.000000 13.991250
653   3  1.998750  0.000000 17.988750
654   3  1.998750  0.000000 21.986250
655   3  1.998750  3.997500  1.998750
656   3  1.998750  3.997500  5.996250
657   3  1.998750  3.997500  9.993750
658   3  1.998750  3.997500 13.991250
659   3  1.998750  3.997500 17.988750
660   3  1.998750  3.997500 21.986250
661   3  1.998750  7.995000  1.998750
662   3  1.998750  7.995000  5.996250
663   3  1.998750  7.995000  9.993750
664   3  1.998750  7.995000 13.991250
665   3  1.998750  7.995000 17.988750
666   3  1.998750  7.995000 21.986250
667   3  1.998750 11.992500  1.998750
668   3  1.998750 11.992500  5.996250
669   3  1.998750 11.992500  9.993750
670   3  1.998750 11.992500 13.991250
671   3  1.998750 11.992500 17.988750
672   3  1.998750 11.992500 21.986250
673   3  1.998750 15.990000  1.998750
674   3  1.998750 15.990000  5.996250
675   3  1.998750 15.990000  9.993750
676   3  1.998750 15.990000 13.991250
677   3  1.998750 15.990000 17.988750
678   3  1.998750 15.990000 21.986250
679   3  1.998750 19.987500  1.998750
680   3  1.998750 19.987500  5.996250
681   3  1.998750 19.987500  9.993750
682   3  1.998750 19.987500 13.991250
683   3  1.998750 19.987500 17.988750
684   3  1.998750 19.987500 21.986250
685   3  5.996250  0.000000  1.998750
686   3  5.996250  0.000000  5.996250
687   3  5.996250  0.000000  9.993750
688   3  5.996250  0.000000 13.991250
689   3  5.996250  0.000000 17.988750
690   3  5.996250  0.000000 21.986250
691   3  5.996250  3.997500  1.998750
692   3  5.996250  3.997500  5.996250
693   3  5.996250  3.997500  9.993750
694   3  5.996250  3.997500 13.991250
695   3  5.996250  3.997500 17.988750
696   3  5.996250  3.997500 21.986250
697   3  5.996250  7.995000  1.998750
698   3  5.996250  7.995000  5.996250
699   3  5.996250  7.995000  9.993750
700   3  5.996250  7.995000 13.991250
701   3  5.996250  7.995000 17.988750
702   3  5.996250  7.995000 21.986250
703   3  5.996250 11.992500  1.998750
704   3  5.996250 11.992500  5.996250
705   3  5.996250 11.992500  9.993750
706   3  5.996250 11.992500 13.991250
707   3  5.996250 11.992500 17.988750
708   3  5.996250 11.992500 21.986250
709   3  5.996250 15.990000  1.998750
710   3  5.996250 15.990000  5.996250
711   3  5.996250 15.990000  9.993750
712   3  5.996250 15.990000 13.991250
713   3  5.996250 15.990000 17.988750
714   3  5.996250 15.990000 21.986250
715   3  5.996250 19.987500  1.998750
716   3  5.996250 19.987500  5.996250
717   3  5.996250 19.987500  9.993750
718   3  5.996250 19.987500 13.991250
719   3  5.996250 19.987500 17.988750
720   3  5.996250 19.987500 21.986250
721   3  9.993750  0.000000  1.998750
722   3  9.993750  0.000000  5.996250
723   3  9.993750  0.000000  9.993750
724   3  9.993750  0.000000 13.991250
725   3  9.993750  0.000000 17.988750
726   3  9.993750  0.000000 21.986250
727   3  9.993750  3.997500  1.998750
728   3  9.993750  3.997500  5.996250
729   3  9.993750  3.997500  9.993750
730   3  9.993750  3.997500 13.991250
731   3  9.993750  3.997500 17.988750
732   3  9.993750  3.997500 21.986250
733   3  9.993750  7.995000  1.998750
734   3  9.993750  7.995000  5.996250
735   3  9.993750  7.995000  9.993750
736   3  9.993750  7.995000 13.991250
737   3  9.993750  7.995000 17.988750
738   3  9.993750  7.995000 21.986250
739   3  9.993750 11.992500  1.998750
740   3  9.993750 11.992500  5.996250
741   3  9.993750 11.992500  9.993750
742   3  9.993750 11.992500 13.991250
743   3  9.993750 11.992500 17.988750
744   3  9.993750 11.992500 21.986250
745   3  9.993750 15.990000  1.998750
746   3  9.993750 15.990000  5.996250
747   3  9.993750 15.990000  9.993750
748   3  9.993750 15.990000 13.991250
749   3  9.993750 15.990000 17.988750
750   3  9.993750 15.990000 21.986250
751   3  9.993750 19.987500  1.998750
752   3  9.993750 19.987500  5.996250
753   3  9.993750 19.987500  9.993750
754   3  9.993750 19.987500 13.991250
755   3  9.993750 19.987500 17.988750
756   3  9.993750 19.987500 21.986250
757   3 13.991250  0.000000  1.998750
758   3 13.991250  0.000000  5.996250
759   3 13.991250  0.000000  9.993750
760   3 13.991250  0.000000 13.991250
761   3 13.991250  0.000000 17.988750
762   3 13.991250  0.000000 21.986250
763   3 13.991250  3.997500  1.998750
764   3 13.991250  3.997500  5.996250
765   3 13.991250  3.997500  9.993750
766   3 13.991250  3.997500 13.991250
767   3 13.991250  3.997500 17.988750
768   3 13.991250  3.997500 21.986250
769   3 13.991250  7.995000  1.998750
770   3 13.991250  7.995000  5.996250
771   3 13.991250  7.995000  9.993750
772   3 13.991250  7.995000 13.991250
773   3 13.991250  7.995000 17.988750
774   3 13.991250  7.995000 21.986250
775   3 13.991250 11.992500  1.998750
776   3 13.991250 11.992500  5.996250
777   3 13.991250 11.992500  9.993750
778   3 13.991250 11.992500 13.991250
779   3 13.991250 11.992500 17.988750
780   3 13.991250 11.992500 21.986250
781   3 13.991250 15.990000  1.998750
782   3 13.991250 15.990000  5.996250